% Model:              2D.mph
% Version:            COMSOL 6.1.0.282
% Date:               May 19 2023, 10:48
% Table:              Probe Table 1 - 
% freq (GHz)                                      phi (deg)                                         Electric field norm (V/m), Boundary Probe 1
1                                                 0                                                 0.6787135710144212
1                                                 29.999999999999996                                0.8051896914471687
1                                                 59.99999999999999                                 0.810695962021545
1                                                 90                                                0.6868092868688006
1                                                 119.99999999999999                                0.5346359034204091
1                                                 150                                               0.5385534760611351
1                                                 180                                               0.5737205379961807
1                                                 210                                               0.6112092814038178
1                                                 239.99999999999997                                0.6006043502093569
1                                                 270                                               0.5520597500714601
1                                                 300                                               0.5329774709965633
1                                                 330                                               0.545454768616804
1                                                 360                                               0.6787135710144211
2                                                 0                                                 0.6674916530717281
2                                                 29.999999999999996                                0.8228071924149674
2                                                 59.99999999999999                                 0.7669991393154068
2                                                 90                                                0.6501945081303976
2                                                 119.99999999999999                                0.5972742783839505
2                                                 150                                               0.5640413954690824
2                                                 180                                               0.6388939314181534
2                                                 210                                               0.6814890076511164
2                                                 239.99999999999997                                0.6670009098684662
2                                                 270                                               0.6370370339960839
2                                                 300                                               0.5729174054698335
2                                                 330                                               0.5660714643909064
2                                                 360                                               0.6674916530717282
3                                                 0                                                 0.5581299741658031
3                                                 29.999999999999996                                0.5614866329515678
3                                                 59.99999999999999                                 0.6271965230842752
3                                                 90                                                0.6198729127583693
3                                                 119.99999999999999                                0.5945944288247824
3                                                 150                                               0.6580022565655282
3                                                 180                                               0.7306981115631357
3                                                 210                                               0.7642893246956316
3                                                 239.99999999999997                                0.7816924757893556
3                                                 270                                               0.7669586617206401
3                                                 300                                               0.6570038202047785
3                                                 330                                               0.6090364640958373
3                                                 360                                               0.558129974165803
4                                                 0                                                 0.6213782814605507
4                                                 29.999999999999996                                0.7353844795218498
4                                                 59.99999999999999                                 0.7362319939746796
4                                                 90                                                0.6844606318297342
4                                                 119.99999999999999                                0.6127432332326659
4                                                 150                                               0.6473415064680679
4                                                 180                                               0.6973379956891103
4                                                 210                                               0.7139341387446427
4                                                 239.99999999999997                                0.7546499811838444
4                                                 270                                               0.7302287096559179
4                                                 300                                               0.6403664938369186
4                                                 330                                               0.5870221576088123
4                                                 360                                               0.6213782814605504
5                                                 0                                                 0.6232101844712428
5                                                 29.999999999999996                                0.6804230678868882
5                                                 59.99999999999999                                 0.6688175279888497
5                                                 90                                                0.6208244751351073
5                                                 119.99999999999999                                0.6604321322730572
5                                                 150                                               0.6861449065240699
5                                                 180                                               0.6636205781609208
5                                                 210                                               0.5944511318855016
5                                                 239.99999999999997                                0.5579685827375443
5                                                 270                                               0.6639510656181704
5                                                 300                                               0.6927301735346794
5                                                 330                                               0.6492795492274492
5                                                 360                                               0.6232101844712425
6                                                 0                                                 0.6910878128404664
6                                                 29.999999999999996                                0.7555717889839024
6                                                 59.99999999999999                                 0.8312178577550736
6                                                 90                                                0.7352107771905354
6                                                 119.99999999999999                                0.6571629291128835
6                                                 150                                               0.6768255397937109
6                                                 180                                               0.7063888808566129
6                                                 210                                               0.6873265709506106
6                                                 239.99999999999997                                0.6111909011935771
6                                                 270                                               0.6436611035051578
6                                                 300                                               0.6296794915263331
6                                                 330                                               0.6934659148338025
6                                                 360                                               0.6910878128404664
7                                                 0                                                 0.6688243492348677
7                                                 29.999999999999996                                0.8639183060108542
7                                                 59.99999999999999                                 0.9406836302309567
7                                                 90                                                0.7396205136304613
7                                                 119.99999999999999                                0.6457353352404773
7                                                 150                                               0.6361154229982524
7                                                 180                                               0.6311458424838249
7                                                 210                                               0.560877349821242
7                                                 239.99999999999997                                0.6310531374719206
7                                                 270                                               0.7125473439445091
7                                                 300                                               0.6405316076178341
7                                                 330                                               0.6480785198699429
7                                                 360                                               0.6688243492348672
8                                                 0                                                 0.6994370005607785
8                                                 29.999999999999996                                0.7977292686757002
8                                                 59.99999999999999                                 0.8147569972701715
8                                                 90                                                0.7521635875782349
8                                                 119.99999999999999                                0.7391671663626905
8                                                 150                                               0.6439521620376939
8                                                 180                                               0.7578801155478581
8                                                 210                                               0.734552003729032
8                                                 239.99999999999997                                0.7152437225642587
8                                                 270                                               0.6319396795213136
8                                                 300                                               0.6609925755529994
8                                                 330                                               0.7001021229339717
8                                                 360                                               0.699437000560777
9                                                 0                                                 0.790984265884759
9                                                 29.999999999999996                                0.9032429842474716
9                                                 59.99999999999999                                 0.8683389718709802
9                                                 90                                                0.8808804031949681
9                                                 119.99999999999999                                0.8304464608288995
9                                                 150                                               0.7434952248833395
9                                                 180                                               0.748256699639716
9                                                 210                                               0.729805859553287
9                                                 239.99999999999997                                0.7617530311415398
9                                                 270                                               0.807059546124183
9                                                 300                                               0.7313049160246465
9                                                 330                                               0.7592395721598698
9                                                 360                                               0.7909842658847591
10                                                0                                                 1.024533702306291
10                                                29.999999999999996                                1.2517662902712186
10                                                59.99999999999999                                 1.1582457926578589
10                                                90                                                0.9697453712061388
10                                                119.99999999999999                                0.8672367069994982
10                                                150                                               0.8179470363982232
10                                                180                                               0.8185170815893872
10                                                210                                               0.7321289410682944
10                                                239.99999999999997                                0.6849389902638225
10                                                270                                               0.7665818628872321
10                                                300                                               0.7843869002895643
10                                                330                                               0.8898028836205335
10                                                360                                               1.024533702306291
11                                                0                                                 0.927914536943949
11                                                29.999999999999996                                1.2568685011094864
11                                                59.99999999999999                                 1.2097019640279267
11                                                90                                                1.0481815551022298
11                                                119.99999999999999                                0.9090848789822837
11                                                150                                               0.7930428606615265
11                                                180                                               0.8626267292465181
11                                                210                                               0.8065903252744874
11                                                239.99999999999997                                0.9435751618914651
11                                                270                                               0.7542565978631576
11                                                300                                               0.8850537184037984
11                                                330                                               0.854380934817661
11                                                360                                               0.9279145369439497
12                                                0                                                 1.1085950336385473
12                                                29.999999999999996                                1.456186802290378
12                                                59.99999999999999                                 1.3905510558540102
12                                                90                                                1.459578765152884
12                                                119.99999999999999                                1.1281734870134632
12                                                150                                               0.8685115756749309
12                                                180                                               0.982615252410047
12                                                210                                               0.9442500308071478
12                                                239.99999999999997                                1.0889095586075324
12                                                270                                               0.9882053292031305
12                                                300                                               1.1047278982318285
12                                                330                                               1.0253516114495345
12                                                360                                               1.1085950336385482
